<?xml version="1.0"?>
<VTKFile type="UnstructuredGrid" version="0.1">
<UnstructuredGrid>
<Piece NumberOfPoints="     12221" NumberOfCells="     10000">
<Points>
<DataArray type="Float64"                                    Name="nodes"                                                      NumberOfComponents=" 3" format="ascii">
0.00000e+00 0.00000e+00 0.00000e+00 1.05441e-01 7.30410e-03 5.99050e-03 2.11811e-01 8.09610e-03 7.04350e-03 3.16550e-01 1.01190e-02 1.11130e-02 4.22317e-01 1.04580e-02 1.52790e-02 5.27398e-01 1.11210e-02 2.13890e-02 6.32796e-01 1.11980e-02 2.84300e-02 7.37782e-01 1.13540e-02 3.69400e-02 8.42791e-01 1.12790e-02 4.65470e-02 9.47480e-01 1.12270e-02 5.74150e-02 1.05205e+00 1.10750e-02 6.93840e-02 1.15633e+00 1.09330e-02 8.24990e-02 1.26043e+00 1.07460e-02 9.66770e-02 1.36424e+00 1.05640e-02 1.11920e-01 1.46782e+00 1.03620e-02 1.28180e-01 1.57112e+00 1.01630e-02 1.45430e-01 1.67416e+00 9.95480e-03 1.63650e-01 1.77692e+00 9.74970e-03 1.82800e-01 1.87940e+00 9.54000e-03 2.02870e-01 1.98160e+00 9.33310e-03 2.23820e-01 2.08353e+00 9.12420e-03 2.45640e-01 2.18516e+00 8.91770e-03 2.68280e-01 2.28651e+00 8.71080e-03 2.91740e-01 2.38758e+00 8.50600e-03 3.15990e-01 2.48835e+00 8.30160e-03 3.40990e-01 2.58885e+00 8.09930e-03 3.66740e-01 2.68905e+00 7.89790e-03 3.93210e-01 2.78897e+00 7.69840e-03 4.20370e-01 2.88861e+00 7.50020e-03 4.48210e-01 2.98797e+00 7.30390e-03 4.76700e-01 3.08705e+00 7.10910e-03 5.05820e-01 3.18586e+00 6.91630e-03 5.35550e-01 3.28439e+00 6.72510e-03 5.65870e-01 3.38265e+00 6.53590e-03 5.96770e-01 3.48065e+00 6.34860e-03 6.28210e-01 3.57839e+00 6.16320e-03 6.60190e-01 3.67586e+00 5.97980e-03 6.92680e-01 3.77309e+00 5.79850e-03 7.25670e-01 3.87006e+00 5.61930e-03 7.59140e-01 3.96678e+00 5.44220e-03 7.93070e-01 4.06327e+00 5.26720e-03 8.27450e-01 4.15951e+00 5.09450e-03 8.62250e-01 4.25553e+00 4.92410e-03 8.97460e-01 4.35132e+00 4.75590e-03 9.33070e-01 4.44689e+00 4.59010e-03 9.69060e-01 4.54224e+00 4.42660e-03 1.00540e+00 4.63738e+00 4.26550e-03 1.04210e+00 4.73231e+00 4.10690e-03 1.07910e+00 4.82705e+00 3.95070e-03 1.11650e+00 4.92158e+00 3.79700e-03 1.15420e+00 5.01593e+00 3.64590e-03 1.19210e+00 5.11009e+00 3.49730e-03 1.23040e+00 5.20408e+00 3.35130e-03 1.26890e+00 5.29789e+00 3.20790e-03 1.30770e+00 5.39153e+00 3.06710e-03 1.34670e+00 5.48501e+00 2.92910e-03 1.38590e+00 5.57833e+00 2.79370e-03 1.42540e+00 5.67150e+00 2.66100e-03 1.46500e+00 5.76452e+00 2.53110e-03 1.50490e+00 5.85740e+00 2.40400e-03 1.54500e+00 5.95015e+00 2.27960e-03 1.58520e+00 6.04276e+00 2.15810e-03 1.62560e+00 6.13525e+00 2.03940e-03 1.66620e+00 6.22762e+00 1.92350e-03 1.70690e+00 6.31988e+00 1.81050e-03 1.74770e+00 6.41202e+00 1.70040e-03 1.78870e+00 6.50406e+00 1.59330e-03 1.82980e+00 6.59599e+00 1.48900e-03 1.87100e+00 6.68783e+00 1.38770e-03 1.91240e+00 6.77958e+00 1.28930e-03 1.95380e+00 6.87125e+00 1.19390e-03 1.99530e+00 6.96283e+00 1.10160e-03 2.03690e+00 7.05433e+00 1.01220e-03 2.07860e+00 7.14576e+00 9.25800e-04 2.12030e+00 7.23712e+00 8.42460e-04 2.16210e+00 7.32841e+00 7.62160e-04 2.20400e+00 7.41965e+00 6.84920e-04 2.24590e+00 7.51083e+00 6.10750e-04 2.28790e+00 7.60195e+00 5.39660e-04 2.32990e+00 7.69302e+00 4.71650e-04 2.37200e+00 7.78405e+00 4.06740e-04 2.41410e+00 7.87504e+00 3.44950e-04 2.45620e+00 7.96599e+00 2.86270e-04 2.49830e+00 8.05690e+00 2.30720e-04 2.54050e+00 8.14778e+00 1.78320e-04 2.58270e+00 8.23862e+00 1.29070e-04 2.62490e+00 8.32945e+00 8.29760e-05 2.66710e+00 8.42025e+00 4.00660e-05 2.70930e+00 8.51102e+00 3.49880e-07 2.75150e+00 8.60178e+00 -3.61540e-05 2.79370e+00 8.69253e+00 -6.94260e-05 2.83590e+00 8.78326e+00 -9.94470e-05 2.87810e+00 8.87398e+00 -1.26200e-04 2.92030e+00 8.96469e+00 -1.49670e-04 2.96250e+00 9.05539e+00 -1.69880e-04 3.00470e+00 9.14609e+00 -1.86870e-04 3.04690e+00 9.23678e+00 -2.00800e-04 3.08900e+00 9.32748e+00 -2.11970e-04 3.13120e+00 9.41817e+00 -2.20960e-04 3.17340e+00 9.50887e+00 -2.28690e-04 3.21550e+00 9.59956e+00 -2.35970e-04 3.25770e+00 0.00000e+00 1.00000e-01 0.00000e+00 1.04143e-01 1.04080e-01 7.49050e-03 2.10640e-01 1.06592e-01 8.52870e-03 3.15931e-01 1.07605e-01 1.27720e-02 4.21746e-01 1.08469e-01 1.72420e-02 5.27074e-01 1.08779e-01 2.33850e-02 6.32479e-01 1.09050e-01 3.05580e-02 7.37572e-01 1.09091e-01 3.90640e-02 8.42573e-01 1.09111e-01 4.87080e-02 9.47301e-01 1.09033e-01 5.95520e-02 1.05186e+00 1.08945e-01 7.15130e-02 1.15615e+00 1.08814e-01 8.45930e-02 1.26023e+00 1.08678e-01 9.87410e-02 1.36404e+00 1.08523e-01 1.13940e-01 1.46761e+00 1.08368e-01 1.30160e-01 1.57090e+00 1.08204e-01 1.47370e-01 1.67394e+00 1.08040e-01 1.65540e-01 1.77669e+00 1.07872e-01 1.84660e-01 1.87917e+00 1.07706e-01 2.04680e-01 1.98136e+00 1.07538e-01 2.25590e-01 2.08328e+00 1.07371e-01 2.47350e-01 2.18491e+00 1.07204e-01 2.69960e-01 2.28626e+00 1.07038e-01 2.93370e-01 2.38732e+00 1.06873e-01 3.17570e-01 2.48809e+00 1.06709e-01 3.42540e-01 2.58858e+00 1.06546e-01 3.68250e-01 2.68879e+00 1.06384e-01 3.94670e-01 2.78871e+00 1.06223e-01 4.21790e-01 2.88835e+00 1.06063e-01 4.49590e-01 2.98771e+00 1.05905e-01 4.78040e-01 3.08679e+00 1.05748e-01 5.07120e-01 3.18560e+00 1.05593e-01 5.36810e-01 3.28413e+00 1.05439e-01 5.67100e-01 3.38240e+00 1.05286e-01 5.97950e-01 3.48040e+00 1.05135e-01 6.29360e-01 3.57814e+00 1.04985e-01 6.61310e-01 3.67562e+00 1.04837e-01 6.93760e-01 3.77285e+00 1.04691e-01 7.26720e-01 3.86982e+00 1.04547e-01 7.60150e-01 3.96656e+00 1.04404e-01 7.94050e-01 4.06304e+00 1.04262e-01 8.28390e-01 4.15930e+00 1.04123e-01 8.63160e-01 4.25532e+00 1.03985e-01 8.98340e-01 4.35112e+00 1.03850e-01 9.33920e-01 4.44669e+00 1.03716e-01 9.69880e-01 4.54205e+00 1.03583e-01 1.00620e+00 4.63719e+00 1.03453e-01 1.04290e+00 4.73213e+00 1.03325e-01 1.07990e+00 4.82687e+00 1.03199e-01 1.11720e+00 4.92142e+00 1.03075e-01 1.15490e+00 5.01577e+00 1.02953e-01 1.19280e+00 5.10994e+00 1.02832e-01 1.23100e+00 5.20393e+00 1.02714e-01 1.26950e+00 5.29775e+00 1.02598e-01 1.30820e+00 5.39140e+00 1.02485e-01 1.34720e+00 5.48488e+00 1.02373e-01 1.38640e+00 5.57821e+00 1.02263e-01 1.42590e+00 5.67139e+00 1.02156e-01 1.46550e+00 5.76442e+00 1.02051e-01 1.50540e+00 5.85731e+00 1.01948e-01 1.54540e+00 5.95006e+00 1.01847e-01 1.58560e+00 6.04268e+00 1.01749e-01 1.62600e+00 6.13517e+00 1.01653e-01 1.66650e+00 6.22755e+00 1.01559e-01 1.70720e+00 6.31981e+00 1.01468e-01 1.74810e+00 6.41196e+00 1.01379e-01 1.78900e+00 6.50400e+00 1.01292e-01 1.83010e+00 6.59594e+00 1.01207e-01 1.87130e+00 6.68779e+00 1.01125e-01 1.91260e+00 6.77954e+00 1.01046e-01 1.95400e+00 6.87121e+00 1.00968e-01 1.99550e+00 6.96279e+00 1.00894e-01 2.03710e+00 7.05430e+00 1.00821e-01 2.07880e+00 7.14574e+00 1.00751e-01 2.12050e+00 7.23710e+00 1.00684e-01 2.16230e+00 7.32840e+00 1.00619e-01 2.20420e+00 7.41964e+00 1.00556e-01 2.24610e+00 7.51082e+00 1.00496e-01 2.28810e+00 7.60194e+00 1.00438e-01 2.33010e+00 7.69302e+00 1.00383e-01 2.37210e+00 7.78405e+00 1.00331e-01 2.41420e+00 7.87504e+00 1.00281e-01 2.45630e+00 7.96599e+00 1.00233e-01 2.49840e+00 8.05690e+00 1.00188e-01 2.54060e+00 8.14779e+00 1.00146e-01 2.58270e+00 8.23864e+00 1.00106e-01 2.62490e+00 8.32946e+00 1.00068e-01 2.66710e+00 8.42026e+00 1.00034e-01 2.70930e+00 8.51104e+00 1.00001e-01 2.75150e+00 8.60180e+00 9.99719e-02 2.79370e+00 8.69254e+00 9.99449e-02 2.83590e+00 8.78327e+00 9.99207e-02 2.87810e+00 8.87399e+00 9.98991e-02 2.92030e+00 8.96470e+00 9.98802e-02 2.96250e+00 9.05541e+00 9.98639e-02 3.00470e+00 9.14610e+00 9.98503e-02 3.04690e+00 9.23680e+00 9.98391e-02 3.08900e+00 9.32749e+00 9.98301e-02 3.13120e+00 9.41818e+00 9.98226e-02 3.17340e+00 9.50888e+00 9.98160e-02 3.21550e+00 9.59958e+00 9.98096e-02 3.25760e+00 0.00000e+00 2.00000e-01 0.00000e+00 1.04266e-01 2.02645e-01 8.99730e-03 2.10223e-01 2.04347e-01 1.02520e-02 3.15520e-01 2.05508e-01 1.43550e-02 4.21389e-01 2.06086e-01 1.89020e-02 5.26763e-01 2.06509e-01 2.50730e-02 6.32223e-01 2.06670e-01 3.22880e-02 7.37329e-01 2.06785e-01 4.08150e-02 8.42359e-01 2.06781e-01 5.04640e-02 9.47085e-01 2.06759e-01 6.13060e-02 1.05166e+00 2.06684e-01 7.32510e-02 1.15594e+00 2.06602e-01 8.63110e-02 1.26002e+00 2.06496e-01 1.00430e-01 1.36382e+00 2.06389e-01 1.15600e-01 1.46738e+00 2.06270e-01 1.31790e-01 1.57067e+00 2.06152e-01 1.48970e-01 1.67370e+00 2.06028e-01 1.67100e-01 1.77644e+00 2.05905e-01 1.86180e-01 1.87892e+00 2.05780e-01 2.06160e-01 1.98110e+00 2.05656e-01 2.27040e-01 2.08302e+00 2.05531e-01 2.48770e-01 2.18465e+00 2.05407e-01 2.71330e-01 2.28599e+00 2.05283e-01 2.94710e-01 2.38705e+00 2.05160e-01 3.18880e-01 2.48782e+00 2.05037e-01 3.43810e-01 2.58831e+00 2.04915e-01 3.69480e-01 2.68852e+00 2.04794e-01 3.95870e-01 2.78844e+00 2.04674e-01 4.22960e-01 2.88808e+00 2.04555e-01 4.50720e-01 2.98744e+00 2.04436e-01 4.79140e-01 3.08652e+00 2.04319e-01 5.08190e-01 3.18533e+00 2.04203e-01 5.37850e-01 3.28387e+00 2.04087e-01 5.68100e-01 3.38214e+00 2.03973e-01 5.98930e-01 3.48014e+00 2.03860e-01 6.30310e-01 3.57789e+00 2.03748e-01 6.62220e-01 3.67537e+00 2.03637e-01 6.94650e-01 3.77260e+00 2.03528e-01 7.27580e-01 3.86958e+00 2.03419e-01 7.60980e-01 3.96632e+00 2.03312e-01 7.94850e-01 4.06281e+00 2.03206e-01 8.29170e-01 4.15907e+00 2.03102e-01 8.63910e-01 4.25510e+00 2.02998e-01 8.99060e-01 4.35090e+00 2.02897e-01 9.34620e-01 4.44648e+00 2.02796e-01 9.70550e-01 4.54185e+00 2.02697e-01 1.00680e+00 4.63700e+00 2.02599e-01 1.04350e+00 4.73195e+00 2.02503e-01 1.08050e+00 4.82669e+00 2.02408e-01 1.11780e+00 4.92124e+00 2.02315e-01 1.15540e+00 5.01560e+00 2.02223e-01 1.19330e+00 5.10978e+00 2.02133e-01 1.23150e+00 5.20377e+00 2.02044e-01 1.27000e+00 5.29760e+00 2.01957e-01 1.30870e+00 5.39125e+00 2.01871e-01 1.34770e+00 5.48475e+00 2.01788e-01 1.38690e+00 5.57808e+00 2.01705e-01 1.42630e+00 5.67126e+00 2.01625e-01 1.46590e+00 5.76430e+00 2.01545e-01 1.50570e+00 5.85719e+00 2.01468e-01 1.54580e+00 5.94995e+00 2.01392e-01 1.58600e+00 6.04258e+00 2.01318e-01 1.62630e+00 6.13508e+00 2.01246e-01 1.66680e+00 6.22746e+00 2.01176e-01 1.70750e+00 6.31972e+00 2.01107e-01 1.74830e+00 6.41188e+00 2.01040e-01 1.78930e+00 6.50392e+00 
[...]
<PointData>
<DataArray type="Float64"                                    Name="Stresses"                                                      NumberOfComponents="6" format="ascii">
1.26280e+00 4.95170e-01 4.73070e-01 2.72170e-01 2.82160e-02 2.15370e-01 1.25120e+00 1.22210e-01 8.73240e-02 1.37180e-01 2.09870e-02 9.42900e-02 1.03850e+00 -1.98520e-02 -5.02590e-02 2.19520e-02 5.87230e-03 9.66580e-03 1.06590e+00 2.15870e-02 -6.08440e-03 2.35600e-02 1.51150e-03 4.38240e-02 1.03290e+00 -4.46990e-03 -2.77260e-02 5.31400e-03 1.73960e-03 4.88920e-02 1.02690e+00 -1.97910e-02 -3.66270e-02 -1.08710e-03 5.17070e-04 8.44610e-02 1.01560e+00 -2.20150e-03 -1.76480e-02 -4.74310e-04 1.26110e-03 8.15560e-02 1.00420e+00 6.06970e-04 -1.10660e-02 -7.15270e-04 9.40720e-04 9.68670e-02 9.83370e-01 -1.97340e-03 -1.03130e-02 -2.79670e-03 1.02120e-03 1.06330e-01 9.65050e-01 -9.90350e-04 -5.89760e-03 -2.90040e-03 8.23910e-04 1.17530e-01 9.54240e-01 -4.30210e-03 -9.33620e-03 -3.62230e-03 8.37280e-04 1.14050e-01 9.21260e-01 -1.52300e-03 -6.38620e-05 -3.66020e-03 6.82530e-04 1.33910e-01 8.98060e-01 -1.90520e-03 2.57660e-03 -3.92050e-03 6.47690e-04 1.40300e-01 8.75240e-01 -1.66310e-03 5.85180e-03 -3.87550e-03 5.44020e-04 1.46680e-01 8.51770e-01 -1.81060e-03 8.58320e-03 -3.94190e-03 4.98480e-04 1.51660e-01 8.28630e-01 -1.65300e-03 1.15900e-02 -3.87880e-03 4.15670e-04 1.56410e-01 8.05390e-01 -1.69930e-03 1.42500e-02 -3.86660e-03 3.67770e-04 1.60120e-01 7.69510e-01 -2.24830e-03 1.99200e-02 -3.79400e-03 2.59350e-04 1.71090e-01 7.59780e-01 -1.58580e-03 1.95130e-02 -3.75030e-03 2.53060e-04 1.66130e-01 7.37440e-01 -1.49790e-03 2.20200e-02 -3.67670e-03 1.95680e-04 1.68390e-01 7.15410e-01 -1.47620e-03 2.43210e-02 -3.61620e-03 1.52570e-04 1.70030e-01 6.93790e-01 -1.40450e-03 2.65680e-02 -3.54190e-03 1.03830e-04 1.71330e-01 6.72530e-01 -1.37250e-03 2.86340e-02 -3.47520e-03 6.46680e-05 1.72110e-01 6.51690e-01 -1.31170e-03 3.06140e-02 -3.40150e-03 2.29700e-05 1.72570e-01 6.31250e-01 -1.27520e-03 3.24270e-02 -3.33260e-03 -1.21040e-05 1.72610e-01 5.99500e-01 -1.57720e-03 3.70600e-02 -3.22230e-03 -6.82540e-05 1.76830e-01 5.91620e-01 -1.18400e-03 3.56820e-02 -3.19090e-03 -7.89960e-05 1.71730e-01 5.72430e-01 -1.13650e-03 3.71130e-02 -3.12000e-03 -1.09800e-04 1.70840e-01 5.53660e-01 -1.09870e-03 3.83950e-02 -3.05140e-03 -1.37020e-04 1.69650e-01 5.35300e-01 -1.05560e-03 3.95530e-02 -2.98210e-03 -1.63410e-04 1.68220e-01 5.17360e-01 -1.01880e-03 4.05680e-02 -2.91460e-03 -1.86980e-04 1.66540e-01 4.99830e-01 -9.79260e-04 4.14590e-02 -2.84690e-03 -2.09440e-04 1.64640e-01 4.82700e-01 -9.43960e-04 4.22160e-02 -2.78070e-03 -2.29590e-04 1.62540e-01 4.76010e-01 -6.24930e-04 4.04980e-02 -2.75350e-03 -2.38610e-04 1.57880e-01 4.49640e-01 -8.73830e-04 4.33570e-02 -2.64970e-03 -2.65470e-04 1.57790e-01 4.33710e-01 -8.39880e-04 4.37470e-02 -2.58520e-03 -2.81160e-04 1.55180e-01 4.18170e-01 -8.08100e-04 4.40180e-02 -2.52180e-03 -2.95180e-04 1.52430e-01 4.03000e-01 -7.76450e-04 4.41790e-02 -2.45890e-03 -3.07970e-04 1.49550e-01 3.88220e-01 -7.46470e-04 4.42300e-02 -2.39700e-03 -3.19300e-04 1.46550e-01 3.82540e-01 -4.67340e-04 4.23510e-02 -2.37350e-03 -3.25320e-04 1.42180e-01 3.59760e-01 -6.88670e-04 4.40270e-02 -2.27550e-03 -3.38350e-04 1.40270e-01 3.46070e-01 -6.61020e-04 4.37820e-02 -2.21600e-03 -3.46150e-04 1.37000e-01 3.32730e-01 -6.34490e-04 4.34460e-02 -2.15740e-03 -3.52830e-04 1.33670e-01 3.19750e-01 -6.08600e-04 4.30260e-02 -2.09960e-03 -3.58530e-04 1.30280e-01 3.07100e-01 -5.83690e-04 4.25250e-02 -2.04270e-03 -3.63230e-04 1.26840e-01 2.94790e-01 -5.59450e-04 4.19500e-02 -1.98670e-03 -3.67030e-04 1.23370e-01 2.90070e-01 -3.20310e-04 4.00630e-02 -1.96730e-03 -3.70910e-04 1.19470e-01 2.71150e-01 -5.13380e-04 4.05920e-02 -1.87730e-03 -3.72100e-04 1.16330e-01 2.59800e-01 -4.91470e-04 3.98190e-02 -1.82390e-03 -3.73470e-04 1.12790e-01 2.48770e-01 -4.70230e-04 3.89900e-02 -1.77140e-03 -3.74130e-04 1.09240e-01 2.38040e-01 -4.49710e-04 3.81100e-02 -1.71980e-03 -3.74100e-04 1.05690e-01 2.27610e-01 -4.29840e-04 3.71820e-02 -1.66910e-03 -3.73460e-04 1.02140e-01 2.11370e-01 -5.99890e-04 3.70130e-02 -1.58550e-03 -3.68080e-04 9.85090e-02 2.07610e-01 -3.92060e-04 3.52050e-02 -1.57030e-03 -3.70420e-04 9.50950e-02 1.98040e-01 -3.74100e-04 3.41640e-02 -1.52220e-03 -3.68100e-04 9.16030e-02 1.88750e-01 -3.56740e-04 3.30930e-02 -1.47490e-03 -3.65300e-04 8.81390e-02 1.79730e-01 -3.39970e-04 3.19960e-02 -1.42850e-03 -3.62040e-04 8.47080e-02 1.70970e-01 -3.23770e-04 3.08780e-02 -1.38290e-03 -3.58370e-04 8.13150e-02 1.67490e-01 -1.44550e-04 2.93050e-02 -1.37020e-03 -3.60770e-04 7.83720e-02 1.54230e-01 -2.93010e-04 2.85930e-02 -1.29420e-03 -3.49850e-04 7.46540e-02 1.46240e-01 -2.78430e-04 2.74320e-02 -1.25110e-03 -3.45060e-04 7.13940e-02 1.38500e-01 -2.64360e-04 2.62640e-02 -1.20870e-03 -3.39950e-04 6.81870e-02 1.26630e-01 -3.97700e-04 2.53340e-02 -1.13630e-03 -3.26890e-04 6.44960e-02 1.23730e-01 -2.37710e-04 2.39190e-02 -1.12640e-03 -3.28860e-04 6.19400e-02 1.16710e-01 -2.25100e-04 2.27490e-02 -1.08630e-03 -3.22910e-04 5.89060e-02 1.09910e-01 -2.12960e-04 2.15830e-02 -1.04690e-03 -3.16720e-04 5.59350e-02 1.03340e-01 -2.01280e-04 2.04240e-02 -1.00830e-03 -3.10310e-04 5.30290e-02 9.69940e-02 -1.90040e-04 1.92760e-02 -9.70400e-04 -3.03680e-04 5.01900e-02 9.08680e-02 -1.79230e-04 1.81400e-02 -9.33170e-04 -2.96850e-04 4.74210e-02 8.49600e-02 -1.68840e-04 1.70190e-02 -8.96600e-04 -2.89840e-04 4.47240e-02 7.92670e-02 -1.58880e-04 1.59150e-02 -8.60680e-04 -2.82650e-04 4.20990e-02 7.37850e-02 -1.49310e-04 1.48290e-02 -8.25390e-04 -2.75290e-04 3.95480e-02 6.85110e-02 -1.40150e-04 1.37650e-02 -7.90730e-04 -2.67790e-04 3.70730e-02 6.34440e-02 -1.31370e-04 1.27220e-02 -7.56660e-04 -2.60130e-04 3.46760e-02 5.85820e-02 -1.22980e-04 1.17050e-02 -7.23180e-04 -2.52330e-04 3.23560e-02 5.39210e-02 -1.14960e-04 1.07120e-02 -6.90260e-04 -2.44400e-04 3.01160e-02 4.94590e-02 -1.07310e-04 9.74700e-03 -6.57890e-04 -2.36340e-04 2.79560e-02 4.74630e-02 -1.29550e-05 8.99660e-03 -6.53540e-04 -2.38380e-04 2.65100e-02 4.11290e-02 -9.30860e-05 7.90290e-03 -5.94720e-04 -2.19840e-04 2.38800e-02 3.72560e-02 -8.65060e-05 7.02630e-03 -5.63880e-04 -2.11410e-04 2.19650e-02 3.35760e-02 -8.02720e-05 6.18120e-03 -5.33520e-04 -2.02870e-04 2.01330e-02 3.00880e-02 -7.43800e-05 5.36870e-03 -5.03610e-04 -1.94200e-04 1.83850e-02 2.67900e-02 -6.88290e-05 4.58950e-03 -4.74130e-04 -1.85410e-04 1.67210e-02 2.36810e-02 -6.36150e-05 3.84430e-03 -4.45040e-04 -1.76500e-04 1.51410e-02 2.07600e-02 -5.87480e-05 3.13380e-03 -4.16320e-04 -1.67450e-04 1.36460e-02 1.80250e-02 -5.42250e-05 2.45840e-03 -3.87910e-04 -1.58250e-04 1.22360e-02 1.54770e-02 -5.00530e-05 1.81870e-03 -3.59750e-04 -1.48880e-04 1.09110e-02 1.31130e-02 -4.62340e-05 1.21500e-03 -3.31760e-04 -1.39300e-04 9.67150e-03 1.19680e-02 2.39380e-06 8.84240e-04 -3.30400e-04 -1.40810e-04 8.96340e-03 8.93620e-03 -3.96980e-05 1.16550e-04 -2.75760e-04 -1.19340e-04 7.44700e-03 7.12130e-03 -3.70020e-05 -3.77980e-04 -2.47390e-04 -1.08800e-04 6.46180e-03 5.48750e-03 -3.46580e-05 -8.36140e-04 -2.18410e-04 -9.77410e-05 5.56080e-03 4.03430e-03 -3.26620e-05 -1.25810e-03 -1.88520e-04 -8.60120e-05 4.74340e-03 2.76220e-03 -3.08730e-05 -1.64440e-03 -1.57340e-04 -7.34380e-05 4.00900e-03 1.22150e-03 -5.18510e-05 -2.18550e-03 -9.63890e-05 -4.72100e-05 3.07210e-03 7.73040e-04 -2.69800e-05 -2.31240e-03 -9.04410e-05 -4.52530e-05 2.78900e-03 7.19200e-05 -2.34880e-05 -2.59490e-03 -5.59460e-05 -3.00380e-05 2.30690e-03 -4.12720e-04 -1.66100e-05 -2.84340e-03 -2.40690e-05 -1.57060e-05 1.91880e-03 -6.61530e-04 -1.19610e-06 -3.05230e-03 -3.24160e-06 -7.55360e-06 1.64160e-03 -7.18200e-04 1.49350e-05 -3.21790e-03 6.16680e-06 -1.16080e-05 1.51390e-03 -7.09940e-04 2.50070e-05 -3.29660e-03 8.50610e-06 -2.02040e-05 1.50820e-03 1.17080e+00 5.09870e-01 4.93890e-01 1.88530e-01 2.35390e-02 2.49370e-01 1.21610e+00 1.72080e-01 1.16840e-01 1.31350e-01 1.95160e-02 1.14370e-01 1.08040e+00 -1.23090e-02 -4.57230e-02 4.67440e-02 8.13780e-03 1.70960e-02 1.08600e+00 2.18050e-02 -8.20730e-03 2.31860e-02 3.50990e-03 5.21390e-02 1.05610e+00 -1.49000e-03 -2.27310e-02 1.02460e-02 2.10220e-03 5.52780e-02 1.03680e+00 -9.40340e-03 -2.49980e-02 2.14290e-03 1.06400e-03 8.79960e-02 1.02530e+00 -1.33570e-03 -1.40010e-02 4.26490e-04 1.10310e-03 8.39670e-02 1.00800e+00 -1.47570e-04 -9.43640e-03 -1.63440e-03 8.95330e-04 9.76490e-02 9.86350e-01 -2.08300e-03 -7.62480e-03 -2.86020e-03 8.41820e-04 1.06510e-01 9.65460e-01 -1.75680e-03 -4.14430e-03 -3.55090e-03 7.45200e-04 1.16890e-01 9.54790e-01 -3.58860e-03 -5.98850e-03 -3.57240e-03 7.61230e-04 1.13280e-01 9.20150e-01 -2.28550e-03 1.56190e-03 -4.12050e-03 6.31160e-04 1.32540e-01 8.96780e-01 -2.56400e-03 4.26890e-03 -4.19820e-03 5.83650e-04 1.38750e-01 8.73560e-01 -2.41770e-03 7.29050e-03 -4.22180e-03 5.25750e-04 1.44950e-01 8.50100e-01 -2.52370e-03 9.99440e-03 -4.20130e-03 4.77070e-04 1.49850e-01 8.26870e-01 -2.39970e-03 1.28450e-02 -4.16610e-03 4.23470e-04 1.54520e-01 8.03700e-01 -2.42850e-03 1.54490e-02 -4.11350e-03 3.75230e-04 1.58210e-01 7.67890e-01 -2.92360e-03 2.10390e-02 -4.03080e-03 2.95230e-04 1.69150e-01 7.58220e-01 -2.31490e-03 2.05440e-02 -3.99360e-03 2.79380e-04 1.64200e-01 7.35970e-01 -2.22630e-03 2.29700e-02 -3.92920e-03 2.33650e-04 1.66470e-01 7.14040e-01 -2.19750e-03 2.52110e-02 -3.86150e-03 1.91140e-04 1.68130e-01 6.92510e-01 -2.12100e-03 2.73920e-02 -3.79380e-03 1.49810e-04 1.69440e-01 6.71350e-01 -2.08200e-03 2.94030e-02 -3.72490e-03 1.11200e-04 1.70260e-01 6.50600e-01 -2.01430e-03 3.13250e-02 -3.65640e-03 7.41560e-05 1.70750e-01 6.30260e-01 -1.97010e-03 3.30880e-02 -3.58760e-03 3.94280e-05 1.70820e-01 5.98640e-01 -2.25490e-03 3.76570e-02 -3.48180e-03 -1.22040e-05 1.75080e-01 5.90800e-01 -1.86240e-03 3.62460e-02 -3.45130e-03 -2.46700e-05 1.70010e-01 5.71690e-01 -1.80600e-03 3.76310e-02 -3.38380e-03 -5.40570e-05 1.69150e-01 5.53000e-01 -1.75890e-03 3.88710e-02 -3.31680e-03 -8.16540e-05 1.68000e-01 5.34710e-01 -1.70620e-03 3.99870e-02 -3.25030e-03 -1.07660e-04 1.66600e-01 5.16830e-01 -1.65940e-03 4.09640e-02 -3.18440e-03 -1.32030e-04 1.64960e-01 4.99360e-01 -1.60960e-03 4.18180e-02 -3.11890e-03 -1.54890e-04 1.63100e-01 4.82300e-01 -1.56370e-03 4.25400e-02 -3.05400e-03 -1.76250e-04 1.61030e-01 4.75650e-01 -1.23940e-03 4.07980e-02 -3.02630e-03 -1.86070e-04 1.56390e-01 4.49350e-01 -1.47150e-03 4.36160e-02 -2.92560e-03 -2.14710e-04 1.56360e-01 4.33470e-01 -1.42610e-03 4.39750e-02 -2.86210e-03 -2.31910e-04 1.53790e-01 4.17970e-01 -1.38270e-03 4.42180e-02 -2.79920e-03 -2.47820e-04 1.51070e-01 4.02850e-01 -1.33910e-03 4.43520e-02 -2.73670e-03 -2.62480e-04 1.48220e-01 3.88100e-01 -1.29700e-03 4.43770e-02 -2.67480e-03 -2.75950e-04 1.45260e-01 3.82440e-01 -1.01080e-03 4.24800e-02 -2.64920e-03 -2.83210e-04 1.40910e-01 3.59710e-01 -1.21440e-03 4.41270e-02 -2.55270e-03 -2.99510e-04 1.39050e-01 3.46050e-01 -1.17410e-03 4.38600e-02 -2.49250e-03 -3.09680e-04 1.35820e-01 3.32740e-01 -1.13480e-03 4.35040e-02 -2.43290e-03 -3.18860e-04 1.32520e-01 3.19780e-01 -1.09600e-03 4.30640e-02 -2.37380e-03 -3.27070e-04 1.29160e-01 3.07160e-01 -1.05810e-03 4.25450e-02 -2.31550e-03 -3.34370e-04 1.25760e-01 2.94870e-01 -1.02080e-03 4.19520e-02 -2.25770e-03 -3.40790e-04 1.22320e-01 2.90160e-01 -7.73430e-04 4.00540e-02 -2.23480e-03 -3.45950e-04 1.18430e-01 2.71260e-01 -9.48430e-04 4.05630e-02 -2.14420e-03 -3.51180e-04 1.15340e-01 2.59930e-01 -9.13300e-04 3.97750e-02 -2.08840e-03 -3.55220e-04 1.11830e-01 2.48910e-01 -8.78830e-04 3.89330e-02 -2.03330e-03 -3.58540e-04 1.08310e-01 2.38190e-01 -8.45070e-04 3.80400e-02 -1.97880e-03 -3.61180e-04 1.04790e-01 2.27770e-01 -8.11980e-04 3.71010e-02 -1.92510e-03 -3.63160e-04 1.01270e-01 2.11540e-01 -9.64100e-04 3.69180e-02 -1.83940e-03 -3.61930e-04 9.76810e-02 2.07790e-01 -7.47870e-04 3.51020e-02 -1.81970e-03 -3.65300e-04 9.42810e-02 1.98220e-01 -7.16840e-04 3.40510e-02 -1.76800e-03 -3.65510e-04 9.08160e-02 1.88930e-01 -6.86480e-04 3.29710e-02 -1.71700e-03 -3.65190e-04 8.73790e-02 1.79910e-01 -6.56790e-04 3.18660e-02 -1.66670e-03 -3.64350e-04 8.39730e-02 1.71160e-01 -6.27770e-04 3.07400e-02 -1.61710e-03 -3.63040e-04 8.06040e-02 1.67680e-01 -4.40300e-04 2.91600e-02 -1.59920e-03 -3.66160e-04 7.76750e-02 1.54420e-01 -5.71740e-04 2.84410e-02 -1.51980e-03 -3.59030e-04 7.39910e-02 1.46430e-01 -5.44730e-04 2.72740e-02 -1.47220e-03 -3.56390e-04 7.07540e-02 1.38680e-01 -5.18380e-04 2.61010e-02 -1.42520e-03 -3.53340e-04 6.75690e-02 1.26810e-01 -6.35430e-04 2.51650e-02 -1.34880e-03 -3.43790e-04 6.39090e-02 1.23910e-01 -4.67680e-04 2.37460e-02 -1.33330e-03 -3.46110e-04 6.13650e-02 1.16880e-01 -4.43320e-04 2.25720e-02 -1.28830e-03 -3.41950e-04 5.83520e-02 1.10080e-01 -4.19630e-04 2.14020e-02 -1.24390e-03 -3.37460e-04 5.54010e-02 1.03500e-01 -3.96590e-04 2.02410e-02 -1.20010e-03 -3.32640e-04 5.25140e-02 9.71530e-02 -3.74220e-04 1.90900e-02 -1.15700e-03 -3.27500e-04 4.96950e-02 9.10210e-02 -3.52520e-04 1.79520e-02 -1.11440e-03 -3.22060e-04 4.69450e-02 8.51060e-02 -3.31470e-04 1.68290e-02 -1.07250e-03 -3.16320e-04 4.42650e-02 7.94050e-02 -3.11090e-04 1.57230e-02 -1.03110e-03 -3.10300e-04 4.16580e-02 7.39150e-02 -2.91360e-04 1.46370e-02 -9.90290e-04 -3.04010e-04 3.91250e-02 6.86330e-02 -2.72300e-04 1.35720e-02 -9.50040e-04 -2.97440e-04 3.66670e-02 6.35580e-02 -2.53900e-04 1.25300e-02 -9.10330e-04 -2.90610e-04 3.42860e-02 5.86860e-02 -2.36170e-04 1.15120e-02 -8.71160e-04 -2.83520e-04 3.19820e-02 5.40160e-02 -2.19090e-04 1.05210e-02 -8.32510e-04 -2.76170e-04 2.97580e-02 4.95450e-02 -2.02690e-04 9.55690e-03 -7.94370e-04 -2.68580e-04 2.76130e-02 4.75440e-02 -1.02680e-04 8.80560e-03 -7.83800e-04 -2.69810e-04 2.61750e-02 4.11950e-02 -1.71860e-04 7.71620e-03 -7.19560e-04 -2.52660e-04 2.35660e-02 3.73130e-02 -1.57450e-04 6.84190e-03 -6.82860e-04 -2.44330e-04 2.16650e-02 3.36230e-02 -1.43710e-04 5.99950e-03 -6.46610e-04 -2.35760e-04 1.98470e-02 3.01240e-02 -1.30650e-04 5.19000e-03 -6.10790e-04 -2.26950e-04 1.81130e-02 2.68160e-02 -1.18270e-04 4.41420e-03 -5.75380e-04 -2.17880e-04 1.64620e-02 2.36960e-02 -1.06570e-04 3.67280e-03 -5.40330e-04 -2.08560e-04 1.48950e-02 2.07640e-02 -9.55790e-05 2.96640e-03 -5.05610e-04 -1.98960e-04 1.34130e-02 1.80190e-02 -8.53030e-05 2.29560e-03 -4.71140e-04 -1.89060e-04 1.20150e-02 1.54600e-02 -7.57720e-05 1.66080e-03 -4.36840e-04 -1.78830e-04 1.07020e-02 1.30850e-02 -6.70060e-05 1.06240e-03 -4.02570e-04 -1.68220e-04 9.47360e-03 1.19350e-02 -1.52830e-05 7.33580e-04 -3.94590e-04 -1.67840e-04 8.77160e-03 8.88750e-03 -5.19520e-05 -2.41530e-05 -3.33370e-04 -1.45540e-04 7.27200e-03 7.06270e-03 -4.57770e-05 -5.11960e-04 -2.97870e-04 -1.33240e-04 6.29840e-03 5.42010e-03 -4.05370e-05 -9.62750e-04 -2.61300e-04 -1.20080e-04 5.40920e-03 3.95980e-03 -3.63390e-05 -1.37660e-03 -2.23230e-04 -1.05880e-04 4.60440e-03 2.68320e-03 -3.30370e-05 -1.75360e-03 -1.83350e-04 -9.04170e-05 3.88400e-03 1.14180e-03 -5.33200e-05 -2.27760e-03 -1.12730e-04 -6.09160e-05 2.97180e-03 6.97870e-04 -2.81910e-05 -2.39780e-03 -9.87440e-05 -5.55750e-05 2.69960e-03 7.77170e-06 -2.46800e-05 -2.66470e-03 -5.69750e-05 -3.72340e-05 2.24140e-03 -4.58500e-04 -1.51350e-05 -2.89340e-03 -2.13810e-05 -2.10300e-05 1.88130e-03 -6.88570e-04 7.50310e-06 -3.08190e-03 1.55490e-06 -1.19660e-05 1.63180e-03 -7.31660e-04 3.51480e-05 -3.23360e-03 1.12080e-05 -1.27230e-05 1.52220e-03 -7.20290e-04 5.55070e-05 -3.30750e-03 1.27500e-05 -1.73290e-05 1.52130e-03 1.15190e+00 5.32700e-01 5.16920e-01 1.18170e-01 1.67670e-02 2.98580e-01 1.18950e+00 2.30580e-01 1.42830e-01 1.04090e-01 1.36080e-02 1.40610e-01 1.09510e+00 1.77890e-02 -3.50880e-02 5.92690e-02 7.36860e-03 1.96650e-02 1.10870e+00 3.38060e-02 -9.16370e-03 2.83310e-02 4.23940e-03 5.49900e-02 1.08110e+00 6.82740e-03 -2.06500e-02 1.39030e-02 1.59280e-03 5.99820e-02 1.05260e+00 -6.35200e-04 -1.76770e-02 8.39050e-04 2.17050e-03 9.07910e-02 1.03620e+00 4.30550e-03 -7.99970e-03 4.29320e-04 6.09610e-04 9.11010e-02 1.01710e+00 1.07290e-03 -9.08790e-03 -1.57450e-03 -2.13620e-04 9.93570e-02 9.92420e-01 -1.89390e-03 -7.45940e-03 -2.94850e-03 -3.32330e-04 1.07370e-01 9.69090e-01 -2.01950e-03 -4.08690e-03 -3.74490e-03 -3.61780e-04 1.17150e-01 9.57300e-01 -4.54710e-03 -6.37860e-03 -4.02320e-03 -3.62980e-04 1.13230e-01 9.20940e-01 -3.20100e-03 1.36730e-03 -4.32200e-03 -3.87340e-04 1.31950e-01 8.96790e-01 -3.71590e-03 3.92670e-03 -4.37630e-03 -3.93250e-04 1.37870e-01 8.73080e-01 -3.59980e-03 6.92690e-03 -4.38670e-03 -4.00550e-04 1.43930e-01 8.49300e-01 -3.80900e-03 9.54020e-03 -4.34690e-03 -4.10190e-04 1.48680e-01 8.25910e-01 -3.67890e-03 1.23780e-02 -4.30310e-03 -4.24530e-04 1.53290e-01 8.02660e-01 -3.74840e-03 1.49300e-02 -4.24030e-03 -4.39760e-04 1.56920e-01 7.67670e-01 -3.91670e-03 2.10850e-02 -4.44710e-03 1.17430e-03 1.68160e-01 7.53230e-01 -3.55180e-03 2.13320e-02 -4.20110e-03 6.33220e-05 1.65350e-01 7.34990e-01 -3.52010e-03 2.24120e-02 -4.05220e-03 -4.96790e-04 1.65170e-01 7.13120e-01 -3.48770e-03 2.46390e-02 -3.98520e-03 -5.15350e-04 1.66850e-01 6.91660e-01 -3.39060e-03 2.68190e-02 -3.92130e-03 -5.34410e-04 1.68180e-01 6.70580e-01 -3.34030e-03 2.88240e-02 -3.85510e-03 -5.51730e-04 1.69020e-01 6.49900e-01 -3.25210e-03 3.07470e-02 -3.79130e-03 -5.68820e-04 1.69540e-01 6.29630e-01 -3.19260e-03 3.25080e-02 -3.72630e-03 -5.84200e-04 1.69640e-01 5.98110e-01 -3.45170e-03 3.70780e-02 -3.63190e-03 -6.11410e-04 1.73950e-01 5.90310e-01 -3.04700e-03 3.56700e-02 -3.59950e-03 -6.12240e-04 1.68880e-01 5.71260e-01 -2.97000e-03 3.70590e-02 -3.53720e-03 -6.24730e-04 1.68060e-01 5.52630e-01 -2.90410e-03 3.83020e-02 -3.47490e-03 -6.35840e-04 1.66940e-01 5.34400e-01 -2.83070e-03 3.94230e-02 -3.41350e-03 -6.46120e-04 1.65570e-01 5.16580e-01 -2.76430e-03 4.04040e-02 -3.35230e-03 -6.55150e-04 1.63950e-01 4.99150e-01 -2.69360e-03 4.12640e-02 -3.29190e-03 -6.63320e-04 1.62130e-01 4.82130e-01 -2.62740e-03 4.19900e-02 -3.23160e-03 -6.70370e-04 1.60090e-01 4.75500e-01 -2.29110e-03 4.02510e-02 -3.20300e-03 -6.70640e-04 1.55460e-01 4.49270e-01 -2.49330e-03 4.30790e-02 -3.11230e-03 -6.81670e-04 1.55470e-01 4.33420e-01 -2.42660e-03 4.34450e-02 -3.05330e-03 -6.85940e-04 1.52930e-01 4.17960e-01 -2.36190e-03 4.36940e-02 -2.99440e-03 -6.89260e-04 1.50230e-01 4.02870e-01 -2.29680e-03 4.38350e-02 -2.93600e-03 -6.91750e-04 1.47410e-01 3.88150e-01 -2.23320e-03 4.38680e-02 -2.87780e-03 -6.93360e-04 1.44480e-01 3.82500e-01 -1.93440e-03 4.19730e-02 -2.85060e-03 -6.92270e-04 1.40140e-01 3.59800e-01 -2.10710e-03 4.36330e-02 -2.76250e-03 -6.94210e-04 1.38310e-01 3.46170e-01 -2.04490e-03 4.33730e-02 -2.70530e-03 -6.93500e-04 1.35110e-01 3.32880e-01 -1.98370e-03 4.30250e-02 -2.64840e-03 -6.92040e-04 1.31830e-01 3.19930e-01 -1.92290e-03 4.25930e-02 -2.59200e-03 -6.89910e-04 1.28500e-01 3.07320e-01 -1.86300e-03 4.20810e-02 -2.53590e-03 -6.87100e-04 1.25110e-01 2.95040e-01 -1.80370e-03 4.14960e-02 -2.48020e-03 -6.83670e-04 1.21690e-01 2.90340e-01 -1.54330e-03 3.96000e-02 -2.45460e-03 -6.81410e-04 1.17820e-01 2.71450e-01 -1.68740e-03 4.01220e-02 -2.36990e-03 -6.75000e-04 1.14750e-01 2.60130e-01 -1.63030e-03 3.93430e-02 -2.31540e-03 -6.69830e-04 1.11260e-01 2.49110e-01 -1.57400e-03 3.85080e-02 -2.26130e-03 -6.64130e-04 1.07760e-01 2.38400e-01 -1.51860e-03 3.76230e-02 -2.20760e-03 -6.57930e-04 1.04250e-01 2.27980e-01 -1.46380e-03 3.66910e-02 -2.15430e-03 -6.51250e-04 1.00750e-01 2.11760e-01 -1.58600e-03 3.65210e-02 -2.07260e-03 -6.39890e-04 9.71850e-02 2.08000e-01 -1.35690e-03 3.47070e-02 -2.04910e-03 -6.36550e-04 9.37910e-02 1.98440e-01 -1.30470e-03 3.36640e-02 -1.99710e-03 -6.28580e-04 9.03410e-02 1.89140e-01 -1.25330e-03 3.25910e-02 -1.94560e-03 -6.20210e-04 8.69170e-02 1.80120e-01 -1.20280e-03 3.14940e-02 -1.89450e-03 -6.11470e-04 8.35250e-02 1.71360e-01 -1.15320e-03 3.03760e-02 -1.84380e-03 -6.02370e-04 8.01690e-02 1.64520e-01 -1.11480e-03 2.90330e-02 -1.77680e-03 -7.35670e-04 7.69560e-02 1.59420e-01 -1.09130e-03 2.75200e-02 -1.69250e-03 -1.00380e-03 7.39260e-02 1.46610e-01 -1.00980e-03 2.69310e-02 -1.69440e-03 -5.73110e-04 7.03560e-02 1.38860e-01 -9.63830e-04 2.57650e-02 -1.64550e-03 -5.62750e-04 6.71820e-02 1.26980e-01 -1.05430e-03 2.48420e-02 -1.56970e-03 -5.45050e-04